# vtk DataFile Version 2.0
Rectangular solid example
ASCII
DATASET RECTILINEAR_GRID
DIMENSIONS 9 9 1
X_COORDINATES 9 float
0
0.111111111111
0.222222222222
0.333333333333
0.444444444444
0.555555555556
0.666666666667
0.777777777778
0.888888888889
Y_COORDINATES 9 float
0
0.111111111111
0.222222222222
0.333333333333
0.444444444444
0.555555555556
0.666666666667
0.777777777778
0.888888888889
Z_COORDINATES 1 float
0
CELL_DATA 64
SCALARS output_slice1_iter1.vtk float 1
LOOKUP_TABLE default
0.000183822034893
0.000184177841047
0.000183822034923
0.000183674714059
0.000183822034777
0.000183674714019
0.000183735711904
0.000183674547372
-0.15512428959
0.214593414594
-0.155124289584
-0.278363946069
-0.15512487904
-0.278363841868
-0.155124861162
-0.278363946034
-1315.18067704
-1314.81095933
-1315.18067704
-1315.30391669
-1315.18067763
-1315.30391659
-1315.18067761
-1315.30391669
-1315.45922516
-1315.4592248
-1315.45922516
-1315.45922531
-1315.45922516
-1315.45922531
-1315.45922525
-1315.45922531
-1315.45922531
-1315.45922525
-1315.45922531
-1315.45922516
-1315.45922531
-1315.45922516
-1315.4592248
-1315.45922516
-1315.30379774
-1315.18079656
-1315.30379763
-1315.18079658
-1315.30379774
-1315.18079599
-1314.81084038
-1315.17984436
-0.278244992402
-0.155243816018
-0.278244889339
-0.155243833695
-0.27824499354
-0.155243244439
0.21471236826
-0.15429161287
0.000183673804483
0.000183734601201
0.00018367380447
0.000183820924066
0.000183673804503
0.000183820924219
0.000184176931499
0.00018382189547
