# vtk DataFile Version 2.0
Rectangular solid example
ASCII
DATASET RECTILINEAR_GRID
DIMENSIONS 9 9 1
X_COORDINATES 9 float
0
0.111111111111
0.222222222222
0.333333333333
0.444444444444
0.555555555556
0.666666666667
0.777777777778
0.888888888889
Y_COORDINATES 9 float
0
0.111111111111
0.222222222222
0.333333333333
0.444444444444
0.555555555556
0.666666666667
0.777777777778
0.888888888889
Z_COORDINATES 1 float
0
CELL_DATA 64
SCALARS output_slice2_iter0.vtk float 1
LOOKUP_TABLE default
0.000118171387532
0.000118400119976
0.000118171387562
0.000118076681318
0.000118171387431
0.000118076681278
0.000118115894194
0.000118076574149
-0.154629751942
0.215088432844
-0.154629751935
-0.277869417994
-0.154630130874
-0.277869351008
-0.154630119381
-0.277869417972
-1315.18117174
-1314.81145356
-1315.18117174
-1315.30441141
-1315.18117212
-1315.30441134
-1315.18117211
-1315.30441141
-1315.45915956
-1315.45915933
-1315.45915956
-1315.45915966
-1315.45915956
-1315.45915966
-1315.45915962
-1315.45915966
-1315.45915966
-1315.45915962
-1315.45915966
-1315.45915956
-1315.45915966
-1315.45915956
-1315.45915933
-1315.45915956
-1315.30429245
-1315.18129106
-1315.30429239
-1315.18129108
-1315.30429246
-1315.1812907
-1314.8113346
-1315.18033906
-0.277750464496
-0.154749074416
-0.277750398241
-0.15474908578
-0.277750465227
-0.15474870697
0.215207386343
-0.153797074455
0.000118075735806
0.000118114819393
0.00011807573579
0.000118170312622
0.000118075735823
0.000118170312761
0.000118399174488
0.000118170937131
