# vtk DataFile Version 2.0
Rectangular solid example
ASCII
DATASET RECTILINEAR_GRID
DIMENSIONS 9 9 1
X_COORDINATES 9 float
0
0.111111111111
0.222222222222
0.333333333333
0.444444444444
0.555555555556
0.666666666667
0.777777777778
0.888888888889
Y_COORDINATES 9 float
0
0.111111111111
0.222222222222
0.333333333333
0.444444444444
0.555555555556
0.666666666667
0.777777777778
0.888888888889
Z_COORDINATES 1 float
0
CELL_DATA 64
SCALARS output_slice2_iter1.vtk float 1
LOOKUP_TABLE default
0.000472682352225
0.000473597278448
0.000472682352216
0.000472303528246
0.000472682350826
0.000472303528213
0.000472460379115
0.000472303099475
-0.157300245187
0.212415344362
-0.157300245181
-0.280539859537
-0.157301760911
-0.280539591594
-0.157301714939
-0.280539859449
-1315.17850033
-1314.80878474
-1315.17850033
-1315.30173995
-1315.17850185
-1315.30173968
-1315.1785018
-1315.30173995
-1315.45951379
-1315.45951287
-1315.45951379
-1315.45951417
-1315.45951379
-1315.45951417
-1315.45951401
-1315.45951417
-1315.45951417
-1315.45951401
-1315.45951417
-1315.45951379
-1315.45951417
-1315.45951379
-1315.45951287
-1315.45951379
-1315.30162099
-1315.17862075
-1315.30162073
-1315.1786208
-1315.30162099
-1315.17861928
-1314.80866579
-1315.17766766
-0.280420905136
-0.157420669005
-0.280420640118
-0.157420714459
-0.280420908062
-0.157419199247
0.212534298764
-0.156467571841
0.000472302776039
0.0004724591099
0.000472302776251
0.000472681081603
0.000472302776277
0.000472681083
0.000473596526488
0.000472683580552
