# vtk DataFile Version 2.0
Rectangular solid example
ASCII
DATASET RECTILINEAR_GRID
DIMENSIONS 9 9 1
X_COORDINATES 9 float
0
0.111111111111
0.222222222222
0.333333333333
0.444444444444
0.555555555556
0.666666666667
0.777777777778
0.888888888889
Y_COORDINATES 9 float
0
0.111111111111
0.222222222222
0.333333333333
0.444444444444
0.555555555556
0.666666666667
0.777777777778
0.888888888889
Z_COORDINATES 1 float
0
CELL_DATA 64
SCALARS output_slice2_iter0.vtk float 1
LOOKUP_TABLE default
0.000472682774079
0.000473597701011
0.000472682774076
0.000472303949903
0.000472682772882
0.000472303949869
0.000472460800912
0.000472303521167
-0.157300246864
0.212415342684
-0.157300246857
-0.280539861214
-0.157301762588
-0.28053959327
-0.157301716616
-0.280539861125
-1315.17850033
-1314.80878474
-1315.17850033
-1315.30173994
-1315.17850185
-1315.30173968
-1315.1785018
-1315.30173994
-1315.45951379
-1315.45951287
-1315.45951379
-1315.45951417
-1315.45951379
-1315.45951417
-1315.45951401
-1315.45951417
-1315.45951417
-1315.45951401
-1315.45951417
-1315.45951379
-1315.45951417
-1315.45951379
-1315.45951287
-1315.45951379
-1315.30162099
-1315.17862075
-1315.30162072
-1315.1786208
-1315.30162099
-1315.17861928
-1314.80866578
-1315.17766766
-0.280420906812
-0.157420670682
-0.280420641794
-0.157420716136
-0.280420909738
-0.157419200922
0.212534297086
-0.156467573517
0.000472303198072
0.000472459532037
0.000472303198248
0.000472681504
0.000472303198275
0.000472681505201
0.000473596949393
0.000472684002748
