# vtk DataFile Version 2.0
Rectangular solid example
ASCII
DATASET RECTILINEAR_GRID
DIMENSIONS 9 9 1
X_COORDINATES 9 float
0
0.111111111111
0.222222222222
0.333333333333
0.444444444444
0.555555555556
0.666666666667
0.777777777778
0.888888888889
Y_COORDINATES 9 float
0
0.111111111111
0.222222222222
0.333333333333
0.444444444444
0.555555555556
0.666666666667
0.777777777778
0.888888888889
Z_COORDINATES 1 float
0
CELL_DATA 64
SCALARS output_slice2_iter1.vtk float 1
LOOKUP_TABLE default
0.000393903033431
0.000394665473653
0.000393903033444
0.000393587346315
0.00039390303275
0.000393587346279
0.000393718055705
0.000393586989084
-0.1567068058
0.213009360465
-0.156706805793
-0.279946431639
-0.156708068905
-0.279946208352
-0.156708030595
-0.279946431565
-1315.17909398
-1314.80937781
-1315.17909398
-1315.3023336
-1315.17909524
-1315.30233338
-1315.1790952
-1315.3023336
-1315.45943507
-1315.45943431
-1315.45943507
-1315.45943539
-1315.45943507
-1315.45943539
-1315.45943526
-1315.45943539
-1315.45943539
-1315.45943526
-1315.45943539
-1315.45943507
-1315.45943539
-1315.45943507
-1315.45943431
-1315.45943507
-1315.30221465
-1315.17921415
-1315.30221442
-1315.17921419
-1315.30221465
-1315.17921293
-1314.80925885
-1315.1782613
-0.279827477438
-0.156826984876
-0.279827256589
-0.156827022755
-0.279827479877
-0.156825760074
0.213128314666
-0.155874131533
0.000393586551604
0.000393716830071
0.00039358655169
0.000393901807109
0.000393586551719
0.000393901807809
0.000394664679065
0.000393903889089
