# vtk DataFile Version 2.0
Rectangular solid example
ASCII
DATASET RECTILINEAR_GRID
DIMENSIONS 9 9 1
X_COORDINATES 9 float
0
0.111111111111
0.222222222222
0.333333333333
0.444444444444
0.555555555556
0.666666666667
0.777777777778
0.888888888889
Y_COORDINATES 9 float
0
0.111111111111
0.222222222222
0.333333333333
0.444444444444
0.555555555556
0.666666666667
0.777777777778
0.888888888889
Z_COORDINATES 1 float
0
CELL_DATA 64
SCALARS output_slice-1_iter0.vtk float 1
LOOKUP_TABLE default
3.74700319383e-10
3.74722727147e-10
3.74733431785e-10
3.74729664339e-10
3.74700326322e-10
3.74689451e-10
3.74713191031e-10
3.74705426036e-10
-0.153739584783
0.215979465084
-0.153739584777
-0.27697926807
-0.153739584783
-0.27697926807
-0.153739584783
-0.27697926807
-1315.18206222
-1314.81234317
-1315.18206222
-1315.3053019
-1315.18206222
-1315.3053019
-1315.18206222
-1315.3053019
-1315.45904149
-1315.45904149
-1315.45904149
-1315.45904149
-1315.45904149
-1315.45904149
-1315.45904149
-1315.45904149
-1315.45904149
-1315.45904149
-1315.45904149
-1315.45904149
-1315.45904149
-1315.45904149
-1315.45904149
-1315.45904149
-1315.30518295
-1315.18218117
-1315.30518295
-1315.18218117
-1315.30518295
-1315.18218117
-1314.81222421
-1315.18122954
-0.276860314873
-0.153858540142
-0.276860314872
-0.153858540142
-0.276860314873
-0.153858540135
0.216098418282
-0.152906905917
-6.35501232856e-10
-6.35510417416e-10
-6.35534340222e-10
-6.35530577555e-10
-6.35501252482e-10
-6.3549037104e-10
-6.35500865895e-10
-6.35506325445e-10
