# vtk DataFile Version 2.0
Rectangular solid example
ASCII
DATASET RECTILINEAR_GRID
DIMENSIONS 9 9 1
X_COORDINATES 9 float
0
0.111111111111
0.222222222222
0.333333333333
0.444444444444
0.555555555556
0.666666666667
0.777777777778
0.888888888889
Y_COORDINATES 9 float
0
0.111111111111
0.222222222222
0.333333333333
0.444444444444
0.555555555556
0.666666666667
0.777777777778
0.888888888889
Z_COORDINATES 1 float
0
CELL_DATA 64
SCALARS output_slice1_iter1.vtk float 1
LOOKUP_TABLE default
0.000183821907234
0.000184177713173
0.000183821907262
0.000183674586459
0.000183821907056
0.00018367458642
0.000183735584263
0.000183674419763
-0.155124289082
0.214593415103
-0.155124289076
-0.278363945561
-0.155124878532
-0.27836384136
-0.155124860654
-0.278363945526
-1315.18067704
-1314.81095933
-1315.18067704
-1315.30391669
-1315.18067763
-1315.30391659
-1315.18067761
-1315.30391669
-1315.45922516
-1315.4592248
-1315.45922516
-1315.45922531
-1315.45922516
-1315.45922531
-1315.45922525
-1315.45922531
-1315.45922531
-1315.45922525
-1315.45922531
-1315.45922516
-1315.45922531
-1315.45922516
-1315.4592248
-1315.45922516
-1315.30379774
-1315.18079656
-1315.30379763
-1315.18079658
-1315.30379774
-1315.18079599
-1314.81084038
-1315.17984436
-0.278244991895
-0.15524381551
-0.278244888832
-0.155243833187
-0.278244993033
-0.155243243931
0.214712368769
-0.154291612362
0.000183673676874
0.000183734473559
0.000183673676872
0.000183820796346
0.000183673676904
0.000183820796558
0.000184176803625
0.000183821767811
