# vtk DataFile Version 2.0
Rectangular solid example
ASCII
DATASET RECTILINEAR_GRID
DIMENSIONS 9 9 1
X_COORDINATES 9 float
0
0.111111111111
0.222222222222
0.333333333333
0.444444444444
0.555555555556
0.666666666667
0.777777777778
0.888888888889
Y_COORDINATES 9 float
0
0.111111111111
0.222222222222
0.333333333333
0.444444444444
0.555555555556
0.666666666667
0.777777777778
0.888888888889
Z_COORDINATES 1 float
0
CELL_DATA 64
SCALARS output_slice2_iter1.vtk float 1
LOOKUP_TABLE default
0.000393903378895
0.000394665819697
0.000393903378912
0.000393587691617
0.000393903378379
0.00039358769158
0.000393718401122
0.000393587334414
-0.156706807171
0.213009359092
-0.156706807164
-0.279946433011
-0.156708070277
-0.279946209723
-0.156708031967
-0.279946432937
-1315.17909397
-1314.80937781
-1315.17909397
-1315.3023336
-1315.17909524
-1315.30233338
-1315.1790952
-1315.3023336
-1315.45943507
-1315.45943431
-1315.45943507
-1315.45943539
-1315.45943507
-1315.45943539
-1315.45943526
-1315.45943539
-1315.45943539
-1315.45943526
-1315.45943539
-1315.45943507
-1315.45943539
-1315.45943507
-1315.45943431
-1315.45943507
-1315.30221464
-1315.17921415
-1315.30221442
-1315.17921419
-1315.30221465
-1315.17921293
-1314.80925885
-1315.1782613
-0.279827478809
-0.156826986248
-0.27982725796
-0.156827024127
-0.279827481248
-0.156825761445
0.213128313294
-0.155874132904
0.00039358689682
0.000393717175373
0.000393586896877
0.000393902152624
0.000393586896908
0.000393902153164
0.000394665024995
0.00039390423444
