# vtk DataFile Version 2.0
Rectangular solid example
ASCII
DATASET RECTILINEAR_GRID
DIMENSIONS 9 9 1
X_COORDINATES 9 float
0
0.111111111111
0.222222222222
0.333333333333
0.444444444444
0.555555555556
0.666666666667
0.777777777778
0.888888888889
Y_COORDINATES 9 float
0
0.111111111111
0.222222222222
0.333333333333
0.444444444444
0.555555555556
0.666666666667
0.777777777778
0.888888888889
Z_COORDINATES 1 float
0
CELL_DATA 64
SCALARS output_slice1_iter1.vtk float 1
LOOKUP_TABLE default
0.000183822060698
0.000184177866895
0.000183822060728
0.000183674739851
0.000183822060593
0.000183674739812
0.000183735737705
0.000183674573167
-0.155124289692
0.214593414492
-0.155124289685
-0.27836394617
-0.155124879142
-0.278363841969
-0.155124861264
-0.278363946136
-1315.18067704
-1314.81095933
-1315.18067704
-1315.30391669
-1315.18067763
-1315.30391659
-1315.18067761
-1315.30391669
-1315.45922516
-1315.4592248
-1315.45922516
-1315.45922531
-1315.45922516
-1315.45922531
-1315.45922525
-1315.45922531
-1315.45922531
-1315.45922525
-1315.45922531
-1315.45922516
-1315.45922531
-1315.45922516
-1315.4592248
-1315.45922516
-1315.30379774
-1315.18079656
-1315.30379763
-1315.18079658
-1315.30379774
-1315.18079599
-1314.81084038
-1315.17984436
-0.278244992504
-0.15524381612
-0.278244889441
-0.155243833796
-0.278244993642
-0.155243244541
0.214712368159
-0.154291612972
0.000183673830392
0.000183734627115
0.000183673830377
0.000183820949996
0.000183673830409
0.000183820950138
0.00018417695746
0.000183821921388
