# vtk DataFile Version 2.0
Rectangular solid example
ASCII
DATASET RECTILINEAR_GRID
DIMENSIONS 9 9 1
X_COORDINATES 9 float
0
0.111111111111
0.222222222222
0.333333333333
0.444444444444
0.555555555556
0.666666666667
0.777777777778
0.888888888889
Y_COORDINATES 9 float
0
0.111111111111
0.222222222222
0.333333333333
0.444444444444
0.555555555556
0.666666666667
0.777777777778
0.888888888889
Z_COORDINATES 1 float
0
CELL_DATA 64
SCALARS output_slice1_iter1.vtk float 1
LOOKUP_TABLE default
0.000210082115206
0.000210488750543
0.000210082115233
0.000209913748607
0.000210082114997
0.000209913748568
0.000209983460381
0.000209913558099
-0.155322103939
0.214395408006
-0.155322103932
-0.278561756587
-0.155322777595
-0.2785616375
-0.155322757163
-0.278561756548
-1315.18047915
-1314.81076164
-1315.18047915
-1315.30371881
-1315.18047983
-1315.30371869
-1315.18047981
-1315.30371881
-1315.4592514
-1315.45925099
-1315.4592514
-1315.45925157
-1315.4592514
-1315.45925157
-1315.4592515
-1315.45925157
-1315.45925157
-1315.4592515
-1315.45925157
-1315.4592514
-1315.45925157
-1315.4592514
-1315.45925099
-1315.4592514
-1315.30359985
-1315.18059876
-1315.30359973
-1315.18059878
-1315.30359985
-1315.18059811
-1314.81064269
-1315.17964648
-0.278442802854
-0.155441711947
-0.278442685068
-0.155441732149
-0.278442804155
-0.155441058716
0.214514361739
-0.154489427525
0.000209912853301
0.000209982335226
0.000209912853304
0.000210080989835
0.000209912853336
0.000210080990077
0.00021048785528
0.000210082100083
