# vtk DataFile Version 2.0
Rectangular solid example
ASCII
DATASET RECTILINEAR_GRID
DIMENSIONS 9 9 1
X_COORDINATES 9 float
0
0.111111111111
0.222222222222
0.333333333333
0.444444444444
0.555555555556
0.666666666667
0.777777777778
0.888888888889
Y_COORDINATES 9 float
0
0.111111111111
0.222222222222
0.333333333333
0.444444444444
0.555555555556
0.666666666667
0.777777777778
0.888888888889
Z_COORDINATES 1 float
0
CELL_DATA 64
SCALARS output_slice0_iter0.vtk float 1
LOOKUP_TABLE default
1.31305043771e-05
1.31559191416e-05
1.31305044102e-05
1.31199814825e-05
1.31305043741e-05
1.31199814423e-05
1.31243384598e-05
1.31199695547e-05
-0.153838492313
0.215880461434
-0.153838492306
-0.277078173685
-0.153838534417
-0.277078166242
-0.15383853314
-0.277078173683
-1315.18196328
-1314.81224432
-1315.18196328
-1315.30520296
-1315.18196332
-1315.30520295
-1315.18196332
-1315.30520296
-1315.45905461
-1315.45905458
-1315.45905461
-1315.45905462
-1315.45905461
-1315.45905462
-1315.45905461
-1315.45905462
-1315.45905462
-1315.45905461
-1315.45905462
-1315.4590546
-1315.45905462
-1315.4590546
-1315.45905458
-1315.4590546
-1315.305084
-1315.18208227
-1315.30508399
-1315.18208227
-1315.305084
-1315.18208223
-1314.81212537
-1315.1811306
-0.276959220454
-0.153957488463
-0.276959213092
-0.153957489725
-0.276959220535
-0.153957447629
0.215999414665
-0.1530058136
1.31189785071e-05
1.3123321124e-05
1.31189784746e-05
1.3129487031e-05
1.31189785076e-05
1.31294870742e-05
1.31549161741e-05
1.31295564343e-05
