# vtk DataFile Version 2.0
Rectangular solid example
ASCII
DATASET RECTILINEAR_GRID
DIMENSIONS 9 9 1
X_COORDINATES 9 float
0
0.111111111111
0.222222222222
0.333333333333
0.444444444444
0.555555555556
0.666666666667
0.777777777778
0.888888888889
Y_COORDINATES 9 float
0
0.111111111111
0.222222222222
0.333333333333
0.444444444444
0.555555555556
0.666666666667
0.777777777778
0.888888888889
Z_COORDINATES 1 float
0
CELL_DATA 64
SCALARS output_slice1_iter2.vtk float 1
LOOKUP_TABLE default
0.000210081936279
0.000210488571315
0.000210081936303
0.000209913569764
0.000210081935984
0.000209913569725
0.000209983281478
0.000209913379241
-0.155322103228
0.214395408718
-0.155322103221
-0.278561755876
-0.155322776884
-0.278561636789
-0.155322756452
-0.278561755837
-1315.18047915
-1314.81076164
-1315.18047915
-1315.30371881
-1315.18047983
-1315.30371869
-1315.18047981
-1315.30371881
-1315.4592514
-1315.45925099
-1315.4592514
-1315.45925157
-1315.4592514
-1315.45925157
-1315.4592515
-1315.45925157
-1315.45925157
-1315.4592515
-1315.45925157
-1315.4592514
-1315.45925157
-1315.4592514
-1315.45925099
-1315.4592514
-1315.30359985
-1315.18059876
-1315.30359973
-1315.18059878
-1315.30359985
-1315.18059811
-1314.81064269
-1315.17964648
-0.278442802143
-0.155441711236
-0.278442684357
-0.155441731438
-0.278442803444
-0.155441058005
0.214514362451
-0.154489426814
0.000209912674443
0.000209982156323
0.000209912674461
0.000210080810822
0.000209912674493
0.000210080811148
0.000210487676052
0.000210081921155
