# vtk DataFile Version 2.0
Rectangular solid example
ASCII
DATASET RECTILINEAR_GRID
DIMENSIONS 9 9 1
X_COORDINATES 9 float
0
0.111111111111
0.222222222222
0.333333333333
0.444444444444
0.555555555556
0.666666666667
0.777777777778
0.888888888889
Y_COORDINATES 9 float
0
0.111111111111
0.222222222222
0.333333333333
0.444444444444
0.555555555556
0.666666666667
0.777777777778
0.888888888889
Z_COORDINATES 1 float
0
CELL_DATA 64
SCALARS output_slice2_iter1.vtk float 1
LOOKUP_TABLE default
0.000393903301936
0.000394665742608
0.000393903301952
0.000393587614694
0.000393903301383
0.000393587614657
0.000393718324173
0.000393587257485
-0.156706806866
0.213009359397
-0.156706806859
-0.279946432706
-0.156708069972
-0.279946209419
-0.156708031662
-0.279946432632
-1315.17909397
-1314.80937781
-1315.17909397
-1315.3023336
-1315.17909524
-1315.30233338
-1315.1790952
-1315.3023336
-1315.45943507
-1315.45943431
-1315.45943507
-1315.45943539
-1315.45943507
-1315.45943539
-1315.45943526
-1315.45943539
-1315.45943539
-1315.45943526
-1315.45943539
-1315.45943507
-1315.45943539
-1315.45943507
-1315.45943431
-1315.45943507
-1315.30221464
-1315.17921415
-1315.30221442
-1315.17921419
-1315.30221465
-1315.17921293
-1314.80925885
-1315.1782613
-0.279827478505
-0.156826985943
-0.279827257656
-0.156827023822
-0.279827480943
-0.15682576114
0.213128313599
-0.155874132599
0.000393586820004
0.000393717098538
0.000393586820068
0.000393902075741
0.000393586820098
0.000393902076317
0.000394664948021
0.000393904157594
