# vtk DataFile Version 2.0
Rectangular solid example
ASCII
DATASET RECTILINEAR_GRID
DIMENSIONS 9 9 1
X_COORDINATES 9 float
0
0.111111111111
0.222222222222
0.333333333333
0.444444444444
0.555555555556
0.666666666667
0.777777777778
0.888888888889
Y_COORDINATES 9 float
0
0.111111111111
0.222222222222
0.333333333333
0.444444444444
0.555555555556
0.666666666667
0.777777777778
0.888888888889
Z_COORDINATES 1 float
0
CELL_DATA 64
SCALARS output_slice1_iter0.vtk float 1
LOOKUP_TABLE default
5.25208677166e-05
5.26225266644e-05
5.2520867749e-05
5.2478776062e-05
5.2520867692e-05
5.2478776022e-05
5.24962040122e-05
5.24787284215e-05
-0.154135214801
0.215583450586
-0.154135214794
-0.277374890428
-0.154135383215
-0.277374860656
-0.154135378107
-0.277374890418
-1315.18166645
-1314.81194779
-1315.18166645
-1315.30490613
-1315.18166662
-1315.3049061
-1315.18166661
-1315.30490613
-1315.45909396
-1315.45909386
-1315.45909396
-1315.45909401
-1315.45909396
-1315.45909401
-1315.45909399
-1315.45909401
-1315.45909401
-1315.45909399
-1315.45909401
-1315.45909396
-1315.45909401
-1315.45909396
-1315.45909386
-1315.45909396
-1315.30478717
-1315.18178557
-1315.30478714
-1315.18178557
-1315.30478717
-1315.1817854
-1314.81182883
-1315.18083377
-0.277255937097
-0.154254333322
-0.27725590765
-0.154254338373
-0.277255937422
-0.154254170009
0.215702403917
-0.153302536547
5.24777945101e-05
5.24951649988e-05
5.24777944813e-05
5.25198286713e-05
5.24777945142e-05
5.25198287354e-05
5.2621545124e-05
5.25201062242e-05
