# vtk DataFile Version 2.0
Rectangular solid example
ASCII
DATASET RECTILINEAR_GRID
DIMENSIONS 9 9 1
X_COORDINATES 9 float
0
0.111111111111
0.222222222222
0.333333333333
0.444444444444
0.555555555556
0.666666666667
0.777777777778
0.888888888889
Y_COORDINATES 9 float
0
0.111111111111
0.222222222222
0.333333333333
0.444444444444
0.555555555556
0.666666666667
0.777777777778
0.888888888889
Z_COORDINATES 1 float
0
CELL_DATA 64
SCALARS output_slice2_iter2.vtk float 1
LOOKUP_TABLE default
0.000472682582306
0.000473597508916
0.000472682582301
0.00047230375822
0.000472682581018
0.000472303758187
0.000472460609166
0.000472303329468
-0.157300246102
0.212415343447
-0.157300246095
-0.280539860452
-0.157301761826
-0.280539592508
-0.157301715854
-0.280539860363
-1315.17850033
-1314.80878474
-1315.17850033
-1315.30173995
-1315.17850185
-1315.30173968
-1315.1785018
-1315.30173995
-1315.45951379
-1315.45951287
-1315.45951379
-1315.45951417
-1315.45951379
-1315.45951417
-1315.45951401
-1315.45951417
-1315.45951417
-1315.45951401
-1315.45951417
-1315.45951379
-1315.45951417
-1315.45951379
-1315.45951287
-1315.45951379
-1315.30162099
-1315.17862075
-1315.30162072
-1315.1786208
-1315.30162099
-1315.17861928
-1314.80866579
-1315.17766766
-0.28042090605
-0.15742066992
-0.280420641032
-0.157420715374
-0.280420908976
-0.157419200161
0.212534297848
-0.156467572755
0.000472303006373
0.000472459340291
0.000472303006566
0.000472681312136
0.000472303006592
0.000472681313426
0.000473596757298
0.000472683810975
