# vtk DataFile Version 2.0
Rectangular solid example
ASCII
DATASET RECTILINEAR_GRID
DIMENSIONS 9 9 1
X_COORDINATES 9 float
0
0.111111111111
0.222222222222
0.333333333333
0.444444444444
0.555555555556
0.666666666667
0.777777777778
0.888888888889
Y_COORDINATES 9 float
0
0.111111111111
0.222222222222
0.333333333333
0.444444444444
0.555555555556
0.666666666667
0.777777777778
0.888888888889
Z_COORDINATES 1 float
0
CELL_DATA 64
SCALARS output_slice2_iter1.vtk float 1
LOOKUP_TABLE default
0.000393903110504
0.000394665550854
0.000393903110518
0.000393587423352
0.00039390310986
0.000393587423315
0.000393718132768
0.000393587066128
-0.156706806104
0.21300936016
-0.156706806098
-0.279946431944
-0.15670806921
-0.279946208657
-0.1567080309
-0.27994643187
-1315.17909398
-1314.80937781
-1315.17909398
-1315.3023336
-1315.17909524
-1315.30233338
-1315.1790952
-1315.3023336
-1315.45943507
-1315.45943431
-1315.45943507
-1315.45943539
-1315.45943507
-1315.45943539
-1315.45943526
-1315.45943539
-1315.45943539
-1315.45943526
-1315.45943539
-1315.45943507
-1315.45943539
-1315.45943507
-1315.45943431
-1315.45943507
-1315.30221465
-1315.17921415
-1315.30221442
-1315.17921419
-1315.30221465
-1315.17921293
-1314.80925885
-1315.1782613
-0.279827477743
-0.156826985181
-0.279827256894
-0.15682702306
-0.279827480181
-0.156825760379
0.213128314361
-0.155874131838
0.000393586628419
0.000393716906906
0.000393586628499
0.000393901883991
0.000393586628529
0.000393901884656
0.00039466475604
0.000393903965935
