# vtk DataFile Version 2.0
Rectangular solid example
ASCII
DATASET RECTILINEAR_GRID
DIMENSIONS 9 9 1
X_COORDINATES 9 float
0
0.111111111111
0.222222222222
0.333333333333
0.444444444444
0.555555555556
0.666666666667
0.777777777778
0.888888888889
Y_COORDINATES 9 float
0
0.111111111111
0.222222222222
0.333333333333
0.444444444444
0.555555555556
0.666666666667
0.777777777778
0.888888888889
Z_COORDINATES 1 float
0
CELL_DATA 64
SCALARS output_slice0_iter1.vtk float 1
LOOKUP_TABLE default
5.25209057982e-05
5.26225648106e-05
5.25209058312e-05
5.24788141258e-05
5.25209057921e-05
5.24788140856e-05
5.24962420886e-05
5.24787664883e-05
-0.154135214953
0.215583450433
-0.154135214946
-0.27737489058
-0.154135383367
-0.277374860809
-0.154135378259
-0.277374890571
-1315.18166645
-1314.81194779
-1315.18166645
-1315.30490613
-1315.18166662
-1315.3049061
-1315.18166661
-1315.30490613
-1315.45909396
-1315.45909386
-1315.45909396
-1315.45909401
-1315.45909396
-1315.45909401
-1315.45909399
-1315.45909401
-1315.45909401
-1315.45909399
-1315.45909401
-1315.45909396
-1315.45909401
-1315.45909396
-1315.45909386
-1315.45909396
-1315.30478717
-1315.18178557
-1315.30478714
-1315.18178557
-1315.30478717
-1315.1817854
-1314.81182883
-1315.18083377
-0.277255937249
-0.154254333474
-0.277255907802
-0.154254338525
-0.277255937574
-0.154254170161
0.215702403765
-0.1533025367
5.24778328043e-05
5.24952033026e-05
5.24778327723e-05
5.25198669988e-05
5.24778328054e-05
5.25198670449e-05
5.26215834975e-05
5.25201445333e-05
