# vtk DataFile Version 2.0
Rectangular solid example
ASCII
DATASET RECTILINEAR_GRID
DIMENSIONS 9 9 1
X_COORDINATES 9 float
0
0.111111111111
0.222222222222
0.333333333333
0.444444444444
0.555555555556
0.666666666667
0.777777777778
0.888888888889
Y_COORDINATES 9 float
0
0.111111111111
0.222222222222
0.333333333333
0.444444444444
0.555555555556
0.666666666667
0.777777777778
0.888888888889
Z_COORDINATES 1 float
0
CELL_DATA 64
SCALARS output_slice0_iter0.vtk float 1
LOOKUP_TABLE default
1.31305106293e-05
1.31559254046e-05
1.31305106624e-05
1.31199877317e-05
1.31305106293e-05
1.31199876915e-05
1.31243447111e-05
1.31199758044e-05
-0.153838492338
0.215880461409
-0.153838492332
-0.277078173711
-0.153838534442
-0.277078166268
-0.153838533165
-0.277078173708
-1315.18196328
-1314.81224432
-1315.18196328
-1315.30520296
-1315.18196332
-1315.30520295
-1315.18196332
-1315.30520296
-1315.45905461
-1315.45905458
-1315.45905461
-1315.45905462
-1315.45905461
-1315.45905462
-1315.45905461
-1315.45905462
-1315.45905462
-1315.45905461
-1315.45905462
-1315.4590546
-1315.45905462
-1315.4590546
-1315.45905458
-1315.4590546
-1315.305084
-1315.18208227
-1315.30508399
-1315.18208227
-1315.305084
-1315.18208223
-1314.81212537
-1315.1811306
-0.276959220479
-0.153957488488
-0.276959213118
-0.15395748975
-0.276959220561
-0.153957447654
0.21599941464
-0.153005813625
1.31189847569e-05
1.31233273753e-05
1.31189847238e-05
1.31294932862e-05
1.31189847569e-05
1.31294933265e-05
1.3154922437e-05
1.31295626865e-05
