# vtk DataFile Version 2.0
Rectangular solid example
ASCII
DATASET RECTILINEAR_GRID
DIMENSIONS 9 9 1
X_COORDINATES 9 float
0
0.111111111111
0.222222222222
0.333333333333
0.444444444444
0.555555555556
0.666666666667
0.777777777778
0.888888888889
Y_COORDINATES 9 float
0
0.111111111111
0.222222222222
0.333333333333
0.444444444444
0.555555555556
0.666666666667
0.777777777778
0.888888888889
Z_COORDINATES 1 float
0
CELL_DATA 64
SCALARS output_slice2_iter2.vtk float 1
LOOKUP_TABLE default
0.000472683004501
0.000473597931821
0.000472683004502
0.000472304180218
0.000472683003415
0.000472304180183
0.000472461031304
0.0004723037515
-0.157300247778
0.212415341769
-0.157300247771
-0.280539862128
-0.157301763503
-0.280539594184
-0.157301717531
-0.280539862039
-1315.17850033
-1314.80878474
-1315.17850033
-1315.30173994
-1315.17850185
-1315.30173968
-1315.1785018
-1315.30173994
-1315.45951379
-1315.45951287
-1315.45951379
-1315.45951417
-1315.45951379
-1315.45951417
-1315.45951401
-1315.45951417
-1315.45951417
-1315.45951401
-1315.45951417
-1315.45951379
-1315.45951417
-1315.45951379
-1315.45951287
-1315.45951379
-1315.30162099
-1315.17862075
-1315.30162072
-1315.1786208
-1315.30162099
-1315.17861928
-1314.80866578
-1315.17766765
-0.280420907726
-0.157420671596
-0.280420642708
-0.157420717051
-0.280420910652
-0.157419201837
0.212534296171
-0.156467574431
0.000472303428405
0.000472459762428
0.000472303428562
0.000472681734533
0.00047230342859
0.000472681735626
0.000473597180202
0.000472684233172
