# vtk DataFile Version 2.0
Rectangular solid example
ASCII
DATASET RECTILINEAR_GRID
DIMENSIONS 9 9 1
X_COORDINATES 9 float
0
0.111111111111
0.222222222222
0.333333333333
0.444444444444
0.555555555556
0.666666666667
0.777777777778
0.888888888889
Y_COORDINATES 9 float
0
0.111111111111
0.222222222222
0.333333333333
0.444444444444
0.555555555556
0.666666666667
0.777777777778
0.888888888889
Z_COORDINATES 1 float
0
CELL_DATA 64
SCALARS output_slice2_iter0.vtk float 1
LOOKUP_TABLE default
0.000118171483362
0.000118400215966
0.000118171483393
0.000118076777102
0.000118171483306
0.000118076777062
0.000118115990011
0.000118076669941
-0.154629752323
0.215088432463
-0.154629752316
-0.277869418376
-0.154630131255
-0.277869351389
-0.154630119762
-0.277869418353
-1315.18117174
-1314.81145356
-1315.18117174
-1315.30441141
-1315.18117212
-1315.30441134
-1315.18117211
-1315.30441141
-1315.45915956
-1315.45915933
-1315.45915956
-1315.45915966
-1315.45915956
-1315.45915966
-1315.45915962
-1315.45915966
-1315.45915966
-1315.45915962
-1315.45915966
-1315.45915956
-1315.45915966
-1315.45915956
-1315.45915933
-1315.45915956
-1315.30429245
-1315.18129106
-1315.30429239
-1315.18129108
-1315.30429246
-1315.1812907
-1314.8113346
-1315.18033906
-0.277750464877
-0.154749074797
-0.277750398622
-0.154749086161
-0.277750465608
-0.154748707351
0.215207385962
-0.153797074836
0.000118075831598
0.000118114915209
0.000118075831575
0.000118170408497
0.000118075831607
0.000118170408591
0.000118399270479
0.000118171032961
