# vtk DataFile Version 2.0
Rectangular solid example
ASCII
DATASET RECTILINEAR_GRID
DIMENSIONS 9 9 1
X_COORDINATES 9 float
0
0.111111111111
0.222222222222
0.333333333333
0.444444444444
0.555555555556
0.666666666667
0.777777777778
0.888888888889
Y_COORDINATES 9 float
0
0.111111111111
0.222222222222
0.333333333333
0.444444444444
0.555555555556
0.666666666667
0.777777777778
0.888888888889
Z_COORDINATES 1 float
0
CELL_DATA 64
SCALARS output_slice1_iter1.vtk float 1
LOOKUP_TABLE default
0.000183821933153
0.000184177739134
0.000183821933181
0.000183674612366
0.000183821932987
0.000183674612327
0.000183735610178
0.000183674445671
-0.155124289184
0.214593415001
-0.155124289177
-0.278363945662
-0.155124878634
-0.278363841461
-0.155124860756
-0.278363945628
-1315.18067704
-1314.81095933
-1315.18067704
-1315.30391669
-1315.18067763
-1315.30391659
-1315.18067761
-1315.30391669
-1315.45922516
-1315.4592248
-1315.45922516
-1315.45922531
-1315.45922516
-1315.45922531
-1315.45922525
-1315.45922531
-1315.45922531
-1315.45922525
-1315.45922531
-1315.45922516
-1315.45922531
-1315.45922516
-1315.4592248
-1315.45922516
-1315.30379774
-1315.18079656
-1315.30379763
-1315.18079658
-1315.30379774
-1315.18079599
-1314.81084038
-1315.17984436
-0.278244991996
-0.155243815612
-0.278244888933
-0.155243833288
-0.278244993134
-0.155243244033
0.214712368667
-0.154291612464
0.000183673702668
0.00018373449936
0.000183673702664
0.000183820822162
0.000183673702696
0.000183820822363
0.000184176829473
0.000183821793616
